                               Psi4 1.3.2 release

  ==> Input File <==

--------------------------------------------------------------------------
memory 40 GB

molecule {
0 1
pubchem:butane
}

set basis cc-pvdz
set scf {
    d_convergence 14
}
set ccenergy {
    maxiter 40
    e_convergence 1E-40
}
energy('ccsd')
--------------------------------------------------------------------------

    Molecular point group: c1

    Geometry (in Angstrom), charge = 0, multiplicity = 1:

       Center              X                  Y                   Z               Mass
    ------------   -----------------  -----------------  -----------------  -----------------
         C           -0.563018926491     0.516006941153     0.007394998996    12.000000000000
         C            0.562981073509    -0.515893058847     0.007394998996    12.000000000000
         C           -1.929318926491    -0.150593058847    -0.006805001004    12.000000000000
         C            1.929381073509     0.150506941153    -0.006805001004    12.000000000000
         H           -0.472418926491     1.166606941153    -0.870305001004     1.007825032230
         H           -0.482518926491     1.155106941153     0.894294998996     1.007825032230
         H            0.482481073509    -1.155093058847     0.894294998996     1.007825032230
         H            0.472281073509    -1.166493058847    -0.870305001004     1.007825032230
         H           -2.054218926491    -0.770993058847    -0.900005001004     1.007825032230
         H           -2.065118926491    -0.785593058847     0.874494998996     1.007825032230
         H           -2.720318926491     0.606006941153    -0.005505001004     1.007825032230
         H            2.054181073509     0.770906941153    -0.900005001004     1.007825032230
         H            2.720181073509    -0.606193058847    -0.005605001004     1.007825032230
         H            2.065181073509     0.785406941153     0.874594998996     1.007825032230

  Charge       = 0
  Multiplicity = 1
  Basis Set: CC-PVDZ
    Blend: CC-PVDZ

    Orbital Energies [Eh]
    ---------------------

    Doubly Occupied:

       1A    -11.219046     2A    -11.218449     3A    -11.215163
       4A    -11.215153     5A     -1.072520     6A     -0.981185
       7A     -0.856609     8A     -0.786538     9A     -0.639111
      10A     -0.584738    11A     -0.571745    12A     -0.566944
      13A     -0.512354    14A     -0.492546    15A     -0.468967
      16A     -0.462426    17A     -0.450420

  @RHF Final Energy:  -157.30935053299442

   => Energetics <=

    Nuclear Repulsion Energy =            131.1659479065405094
    One-Electron Energy =                -470.3227675561407750
    Two-Electron Energy =                 181.8474691166058506
    Total Energy =                       -157.3093505329944151

  Dipole Moment: [D]
     X:     0.0000      Y:    -0.0000      Z:     0.0010     Total:     0.0010

      * MP2 total energy                      = -157.908664104007215
      * CCSD total energy                     = -157.970478518583633
*** Psi4 exiting successfully. Buy a developer a beer!
