                               Psi4 1.4a2.dev224

  ==> Input File <==

--------------------------------------------------------------------------
memory 2 GB

molecule {
0 1
O
H 1 1.1
H 1 1.1 2 104.0
}

set basis cc-pvdz
set scf {
    d_convergence 14
}
set ccenergy {
    maxiter 40
    e_convergence 1E-40
}
energy('ccsd')
--------------------------------------------------------------------------

    Molecular point group: c2v

    Geometry (in Angstrom), charge = 0, multiplicity = 1:

       Center              X                  Y                   Z               Mass
    ------------   -----------------  -----------------  -----------------  -----------------
         O            0.000000000000     0.000000000000    -0.075791843599    15.994914619570
         H            0.000000000000    -0.866811828967     0.601435779259     1.007825032230
         H            0.000000000000     0.866811828967     0.601435779259     1.007825032230

  Charge       = 0
  Multiplicity = 1
  Basis Set: CC-PVDZ
    Blend: CC-PVDZ

    Orbital Energies [Eh]
    ---------------------

    Doubly Occupied:

       1A1   -20.574752     2A1    -1.277566     1B2    -0.629911
       3A1    -0.541684     1B1    -0.486545

  @RHF Final Energy:   -75.98979578728877

   => Energetics <=

    Nuclear Repulsion Energy =              8.0023664821734215
    One-Electron Energy =                -120.9634075636078450
    Two-Electron Energy =                  36.9712452941456320
    Total Energy =                        -75.9897957872887844

  Dipole Moment: [D]
     X:     0.0000      Y:     0.0000      Z:     2.1766     Total:     2.1766

      * MP2 total energy                      =  -76.204143394766291
      * CCSD total energy                     =  -76.213705805992277
*** Psi4 exiting successfully. Buy a developer a beer!
