                               Psi4 1.4a2.dev215

  ==> Input File <==

--------------------------------------------------------------------------
memory 2 GB

molecule {
0 1
O
H 1 1.1
H 1 1.1 2 104.0
}

set basis cc-pvqz
set ccenergy {
    maxiter 40
    e_convergence 1E-40
}
energy('ccsd')
--------------------------------------------------------------------------

    Molecular point group: c2v

    Geometry (in Angstrom), charge = 0, multiplicity = 1:

       Center              X                  Y                   Z               Mass
    ------------   -----------------  -----------------  -----------------  -----------------
         O            0.000000000000     0.000000000000    -0.075791843599    15.994914619570
         H            0.000000000000    -0.866811828967     0.601435779259     1.007825032230
         H            0.000000000000     0.866811828967     0.601435779259     1.007825032230

  Charge       = 0
  Multiplicity = 1
  Basis Set: CC-PVQZ
    Blend: CC-PVQZ

    Orbital Energies [Eh]
    ---------------------

    Doubly Occupied:

       1A1   -20.582597     2A1    -1.288294     1B2    -0.642749
       3A1    -0.555474     1B1    -0.499270

  @RHF Final Energy:   -76.02520282184281

   => Energetics <=

    Nuclear Repulsion Energy =              8.0023664821734215
    One-Electron Energy =                -120.9183718567638692
    Two-Electron Energy =                  36.8908025527476298
    Total Energy =                        -76.0252028218428109

  Dipole Moment: [D]
     X:     0.0000      Y:     0.0000      Z:     2.1188     Total:     2.1188

      * MP2 total energy                      =  -76.348820639979664
      * CCSD total energy                     =  -76.351323878063184
*** Psi4 exiting successfully. Buy a developer a beer!
